<PP_INFO>
Generated using ppconvert
Author:  Kenneth P. Esler  Generation date: 11/25/09
<PP_INFO/>
<PP_HEADER>
   0                  Version Number
  Na                  Element
  NC                  Norm - Conserving pseudopotential
   F                  Nonlinear Core Correction
  SLA   PW  PBE  PBE  Exchange-Corelation functional
  1.0000000000        Z valence
  -0.1823400000       Total energy
  0.000000  0.000000  Suggested cutoff for wfc and rho
  2                   Max angular momentum component
  1583                Number of points in mesh
  3   2               Number of Wavefunctions, Number of Projectors
 WaveFunctions      nl   l   occ    
                    3s   0   1.0000
                    3p   1   0.0000
                    3d   2   0.0000
<PP_HEADER/>
<PP_MESH>
  <PP_R>
  0.00000000000e+00 9.15178541205166012e-10 1.84264117492380997e-09 2.78255278584464981e-09
  3.73508047184e-09 4.70039357367587992e-09 5.67866370511081012e-09 6.67006478341198997e-09
  7.67477306027e-09 8.69296715313924053e-09 9.72482807698106987e-09 1.07705392764563996e-08
  1.18302866585e-08 1.29042586255352002e-08 1.39926461086427003e-08 1.50956426018297006e-08
  1.62134441963e-08 1.73462496151812015e-08 1.84942602491867006e-08 1.96576801920860987e-08
  2.08367162772e-08 2.20315781139161007e-08 2.32424781253962009e-08 2.44696315858982995e-08
  2.57132566593e-08 2.69735744376879010e-08 2.82508089809659997e-08 2.95451873563868007e-08
  3.08569396791e-08 3.21862991528850998e-08 3.35335021119047001e-08 3.48987880624258970e-08
  3.62823997255e-08 3.76845830803182969e-08 3.91055874074742026e-08 4.05456653337487031e-08
  4.20050728768e-08 4.34840694906660028e-08 4.49829181120091027e-08 4.65018852067422018e-08
  4.80412408175e-08 4.96012586114376993e-08 5.11822159292795027e-08 5.27843938342285033e-08
  5.44080771621e-08 5.60535545720801005e-08 5.77211185977240019e-08 5.94110656992824021e-08
  6.11236963162e-08 6.28593149207923990e-08 6.46182300719095938e-08 6.64007544702577049e-08
  6.82072050138e-08 7.00379028539307039e-08 7.18931734529922006e-08 7.37733466417126962e-08
  7.56787566781e-08 7.76097423066010936e-08 7.95666468187690990e-08 8.15498181138491034e-08
  8.35596087608e-08 8.55963760611799937e-08 8.76604821121683052e-08 8.97522938714378981e-08
  9.18721832221e-08 9.40205270390885026e-08 9.61977072557186990e-08 9.84041109320295942e-08
  1.00640130323e-07 1.02906162950201997e-07 1.05202611668723999e-07 1.07529884742539006e-07
  1.09888395915e-07 1.12278564483830000e-07 1.14700815373545004e-07 1.17155579213116006e-07
  1.19643292411e-07 1.22164397235282001e-07 1.24719341887605997e-07 1.27308580587553010e-07
  1.29932573651e-07 1.32591787572649007e-07 1.35286695108509994e-07 1.38017775360399009e-07
  1.40785513861e-07 1.43590402659662013e-07 1.46432940411012010e-07 1.49313632462466991e-07
  1.52232990945e-07 1.55191534862297998e-07 1.58189790186583010e-07 1.61228289948563010e-07
  1.64307574334e-07 1.67428190779272995e-07 1.70590694068922989e-07 1.73795646434065994e-07
  1.77043617652e-07 1.80335185149737997e-07 1.83670934102151012e-07 1.87051457540512994e-07
  1.90477356456e-07 1.93949239905343998e-07 1.97467725122401012e-07 2.01033437624590999e-07
  2.04647011326e-07 2.08309088648500009e-07 2.12020320638451995e-07 2.15781367079958004e-07
  2.19592896613e-07 2.23455586854070990e-07 2.27370124512626990e-07 2.31337205517187999e-07
  2.35357535137e-07 2.39431828108052004e-07 2.43560808759692003e-07 2.47745211143844006e-07
  2.51985779165e-07 2.56283266713944012e-07 2.60638437798926007e-07 2.65052066684337014e-07
  2.69524938027e-07 2.74057847015639013e-07 2.78651599512861986e-07 2.83307012197819013e-07
  2.88024912712e-07 2.92806139804774007e-07 2.97651543485589014e-07 3.02561985171994995e-07
  3.07538337844e-07 3.12581486200639977e-07 3.17692326813894002e-07 3.22871768291448989e-07
  3.28120731437e-07 3.33440149411994984e-07 3.38830967906133015e-07 3.44294145300882007e-07
  3.49830652842e-07 3.55441474812583017e-07 3.61127608706362014e-07 3.66890065406730977e-07
  3.72729869366e-07 3.78648058785759023e-07 3.84645685805320979e-07 3.90723816684895985e-07
  3.96883531997e-07 4.03125926818642020e-07 4.09452110925055992e-07 4.15863208987951023e-07
  4.22360360775e-07 4.28944721352459992e-07 4.35617461290724981e-07 4.42379766872228015e-07
  4.49232840302e-07 4.56177899923566981e-07 4.63216180431176988e-07 4.70348933093670006e-07
  4.77577425975e-07 4.84902944158857952e-07 4.92326789979630993e-07 4.99850283251432982e-07
  5.07474761504e-07 5.15201580220196983e-07 5.23032113077053033e-07 5.30967752189915051e-07
  5.39009908360e-07 5.47160011325053047e-07 5.55419510013822045e-07 5.63789872803352947e-07
  5.72272587780e-07 5.80869163004887030e-07 5.89581126780130974e-07 5.98410027922423977e-07
  6.07357436037e-07 6.16424941799092987e-07 6.25614157232271992e-07 6.34926715999482973e-07
  6.44364273691e-07 6.53928508120484052e-07 6.63621119620697001e-07 6.73443831348356965e-07
  6.83398389589e-07 6.93486564068681959e-07 7.03710148266616961e-07 7.14070959736009982e-07
  7.24570840426e-07 7.35211657010262022e-07 7.45995301216982985e-07 7.56923690167056042e-07
  7.67998766714e-07 7.79222499789376974e-07 7.90596884753176957e-07 8.02123943748205003e-07
  8.13805726060e-07 8.25644308479889041e-07 8.37641795676665956e-07 8.49800320568295999e-07
  8.62122044702e-07 8.74609158639978004e-07 8.87263882345472041e-07 9.00088465580808956e-07
  9.13085188306e-07 9.26256361082780019e-07 9.39604325488645037e-07 9.53131454529875005e-07
  9.66840153065e-07 9.80732858232197948e-07 9.94812039882201051e-07 1.00908020101775007e-06
  1.02353987824e-06 1.03819364219155003e-06 1.05304409802933995e-06 1.06809388587195005e-06
  1.08334568128e-06 1.09880219571449007e-06 1.11446617705037993e-06 1.13034041003358004e-06
  1.14642771679e-06 1.16273095733288994e-06 1.17925303005382996e-06 1.19599687225546995e-06
  1.21296546066e-06 1.23016181196488991e-06 1.24758898332972990e-06 1.26525007296915003e-06
  1.28314822068e-06 1.30128660839916010e-06 1.31966846077983992e-06 1.33829704575428002e-06
  1.35717567512e-06 1.37630770512738990e-06 1.39569653707673999e-06 1.41534561792253007e-06
  1.43525844089e-06 1.45543854607831998e-06 1.47588952112558992e-06 1.49661500181101000e-06
  1.51761867272e-06 1.53890426789100996e-06 1.56047557148870999e-06 1.58233641846740003e-06
  1.60449069526e-06 1.62694234045531991e-06 1.64969534552371011e-06 1.67275375550123996e-06
  1.69612166972e-06 1.71980324254195999e-06 1.74380268408230993e-06 1.76812426097318006e-06
  1.79277229711e-06 1.81775117444431993e-06 1.84306533371769007e-06 1.86871927529627003e-06
  1.89471755995e-06 1.92106480965970002e-06 1.94776570845518992e-06 1.97482500323161003e-06
  2.00224750460e-06 2.03003808774848006e-06 2.05820169329381979e-06 2.08674332817491983e-06
  2.11566806654e-06 2.14498105062706980e-06 2.17468749172438994e-06 2.20479267105064012e-06
  2.23530194072e-06 2.26622072467401017e-06 2.29755451967577020e-06 2.32930889625725996e-06
  2.36148949972e-06 2.39410205115880005e-06 2.42715234843259007e-06 2.46064626724143998e-06
  2.49458976215e-06 2.52898886764083994e-06 2.56384969920701008e-06 2.59917845441952993e-06
  2.63498141404e-06 2.67126494313041993e-06 2.70803549219440989e-06 2.74529959831437016e-06
  2.78306388632e-06 2.82133506995717988e-06 2.86011995309746999e-06 2.89942543093178014e-06
  2.93925849120e-06 2.97962621545231998e-06 3.02053578026704991e-06 3.06199445856754986e-06
  3.10400962089e-06 3.14658873672140005e-06 3.18973937578032988e-06 3.23346920940988988e-06
  3.27778601192e-06 3.32269766196372005e-06 3.36821214395901017e-06 3.41433754948708991e-06
  3.46108207874e-06 3.50845404198402019e-06 3.55646186102164020e-06 3.60511407070422998e-06
  3.65441932044e-06 3.70438637574147980e-06 3.75502411976738980e-06 3.80634155491834005e-06
  3.85834780443e-06 3.91105211399202970e-06 3.96446385340105990e-06 4.01859251821717005e-06
  4.07344773146e-06 4.12903924530193986e-06 4.18537694283518993e-06 4.24247083979548022e-06
  4.30033108636e-06 4.35896796894511000e-06 4.41839191204200967e-06 4.47861348006306962e-06
  4.53964337922e-06 4.60149245944367985e-06 4.66417171627875987e-06 4.72769229287273029e-06
  4.79206548194e-06 4.85730272777218012e-06 4.92341562827410038e-06 4.99041593702428974e-06
  5.05831556537e-06 5.12712658452071973e-06 5.19686122774211968e-06 5.26753189248301041e-06
  5.33915114260e-06 5.41173171060253037e-06 5.48528649988417965e-06 5.55982858704887989e-06
  5.63537122422e-06 5.71192784139736008e-06 5.78951204884915972e-06 5.86813763952730981e-06
  5.94781859152e-06 6.02856907054469979e-06 6.11040343244975982e-06 6.19333622578340983e-06
  6.27738219437e-06 6.36255627994171025e-06 6.44887362477724022e-06 6.53634957441143020e-06
  6.62499968035e-06 6.71483970285910982e-06 6.80588561372108988e-06 6.89815359912006036e-06
  6.99166006250e-06 7.08642162746773014e-06 7.18245514078399989e-06 7.27977767532274980e-06
  7.37840653312e-06 7.47835924846734008e-06 7.57965359098697976e-06 7.68230756883303959e-06
  7.78633943187e-06 7.89176767493112027e-06 7.99861104108700012e-06 8.10688852499719974e-06
  8.21661937628e-06 8.32782310292338986e-06 8.44051947477957020e-06 8.55472852705326932e-06
  8.67047056388e-06 8.78776616191709986e-06 8.90663617403385985e-06 9.02710173298677080e-06
  9.14918425519e-06 9.27290544453196002e-06 9.39828729620925012e-06 9.52535210066150964e-06
  9.65412244752e-06 9.78462122963588047e-06 9.91687164713043972e-06 1.00508972115392999e-05
  1.01867217500e-05 1.03243694094022001e-05 1.04638646608561996e-05 1.06052323038675003e-05
  1.07484974708e-05 1.08936856314958993e-05 1.10408225974642994e-05 1.11899345268094995e-05
  1.13410479287e-05 1.14941896681734997e-05 1.16493869707965995e-05 1.18066674276212001e-05
  1.19660590000e-05 1.21275900247273006e-05 1.22912892187602993e-05 1.24571856846405992e-05
  1.26253089155e-05 1.27956888003862997e-05 1.29683556294748993e-05 1.31433400995560999e-05
  1.33206733194e-05 1.35003868155019006e-05 1.36825125372787000e-05 1.38670828631568993e-05
  1.40541306061e-05 1.42436890196079001e-05 1.44357918033781993e-05 1.46304731095478005e-05
  1.48277675486e-05 1.50277101957399993e-05 1.52303365967351999e-05 1.54356827746302000e-05
  1.56437852360e-05 1.58546809772445011e-05 1.60684074916368006e-05 1.62850027755173994e-05
  1.65045053353e-05 1.67269541941950985e-05 1.69523888992973003e-05 1.71808495284662010e-05
  1.74123766975e-05 1.76470115674738996e-05 1.78847958517916986e-05 1.81257718238680996e-05
  1.83699823245e-05 1.86174707695619998e-05 1.88682811576205003e-05 1.91224580778600008e-05
  1.93800467180e-05 1.96410928721284994e-05 1.99056429492647989e-05 2.01737439811882012e-05
  2.04454436310e-05 2.07207902016073999e-05 2.09998326442053000e-05 2.12826205670846990e-05
  2.15692042444e-05 2.18596346251117986e-05 2.21539633420562008e-05 2.24522427211123990e-05
  2.27545257905e-05 2.30608662902610996e-05 2.33713186817021993e-05 2.36859381571884986e-05
  2.40047806499e-05 2.43279028437853993e-05 2.46553621836421984e-05 2.49872168853263995e-05
  2.53235259461e-05 2.56643491551362001e-05 2.60097471041154988e-05 2.63597811980306001e-05
  2.67145136661e-05 2.70740075727685014e-05 2.74383268290501013e-05 2.78075362037589012e-05
  2.81817013351e-05 2.85608887422731999e-05 2.89451658374029987e-05 2.93346009374192015e-05
  2.97292632763e-05 3.01292230171403985e-05 3.05345512650858015e-05 3.09453200795130001e-05
  3.13616024871e-05 3.17834724946169968e-05 3.22110051023749981e-05 3.26442763172679975e-05
  3.30833631664e-05 3.35283437109038020e-05 3.39792970595118032e-05 3.44363033829265015e-05
  3.48994439279e-05 3.53688010318094028e-05 3.58444581370934994e-05 3.63264998062881985e-05
  3.68150117370e-05 3.73100807769607024e-05 3.78117949398683000e-05 3.83202434206330011e-05
  3.88355166114e-05 3.93577061177539993e-05 3.98869047746555982e-05 4.04232066632947019e-05
  4.09667071276e-05 4.15175027914333004e-05 4.20756915753486030e-05 4.26413727144195969e-05
  4.32146467757e-05 4.37956156760044987e-05 4.43843827003071004e-05 4.49810525198236969e-05
  4.55857312108e-05 4.61985262731437981e-05 4.68195466499321010e-05 4.74489027463835029e-05
  4.80867064497e-05 4.87330711488383019e-05 4.93881117548285989e-05 5.00519447210434994e-05
  5.07246880640e-05 5.14064613842291982e-05 5.20973858877298032e-05 5.27975844073252020e-05
  5.35071814246e-05 5.42263030919934983e-05 5.49550772552620002e-05 5.56936334761728004e-05
  5.64421030556e-05 5.72006190566375978e-05 5.79693163287082973e-05 5.87483315310842973e-05
  5.95378031574e-05 6.03378715602721972e-05 6.11486789761648067e-05 6.19703695507624054e-05
  6.28030893646e-05 6.36469864588097047e-05 6.45022108619032014e-05 6.53689146159807045e-05
  6.62472518040e-05 6.71373785770840062e-05 6.80394531823607957e-05 6.89536359910169057e-05
  6.98800895268e-05 7.08189784951455986e-05 7.17704698119762952e-05 7.27347326338581064e-05
  7.37119383878e-05 7.47022608019402964e-05 7.57058759361079972e-05 7.67229622134472949e-05
  7.77537004520e-05 7.87982738967593041e-05 7.98568682524972997e-05 8.09296717165288999e-05
  8.20168750123e-05 8.31186714232471052e-05 8.42352568272022011e-05 8.53668297311738054e-05
  8.65135913067e-05 8.76757454254007979e-05 8.88534986956386017e-05 9.00470604988328047e-05
  9.12566430269e-05 9.24824613198958035e-05 9.37247333043248951e-05 9.49836798318036939e-05
  9.62595247184e-05 9.75524947842353019e-05 9.88628198941674002e-05 1.00190732998298006e-04
  1.01536470174e-04 1.02900270665676999e-04 1.04282376931647003e-04 1.05683034682895998e-04
  1.07102492929e-04 1.08541004021636000e-04 1.09998823700091993e-04 1.11476211136086006e-04
  1.12973428980e-04 1.14490743408329995e-04 1.16028424169369002e-04 1.17586744632799007e-04
  1.19165981837e-04 1.20766416540830002e-04 1.22388333268812010e-04 1.24032020366442007e-04
  1.25697770049e-04 1.27385878454413989e-04 1.29096645695028002e-04 1.30830375911833013e-04
  1.32587377328e-04 1.34367962304267992e-04 1.36172447393462009e-04 1.38001153397785992e-04
  1.39854405425e-04 1.41732532948047989e-04 1.43635869860178004e-04 1.45564754537754994e-04
  1.47519529899e-04 1.49500543463755011e-04 1.51508147418352008e-04 1.53542698675139988e-04
  1.55604558937e-04 1.57694094763734997e-04 1.59811677632447000e-04 1.61957684008368996e-04
  1.64132495409e-04 1.66336498474396987e-04 1.68570085031942012e-04 1.70833652169968998e-04
  1.73127602306e-04 1.75452343260558012e-04 1.77808288325924011e-04 1.80195856343354997e-04
  1.82615471776e-04 1.85067564783113989e-04 1.87552571299773991e-04 1.90070933111135995e-04
  1.92623097933e-04 1.95209519489077007e-04 1.97830657595657013e-04 2.00486978239351006e-04
  2.03178953662e-04 2.05907062443910007e-04 2.08671789589576998e-04 2.11473626613264992e-04
  2.14313071627e-04 2.17190629427624007e-04 2.20106811589410012e-04 2.23062136552132991e-04
  2.26057129715e-04 2.29092323528178011e-04 2.32168257590619994e-04 2.35285478742834988e-04
  2.38444541166e-04 2.41646006478576990e-04 2.44890443839342986e-04 2.48178430045388021e-04
  2.51510549636e-04 2.54887394997529017e-04 2.58309566466176995e-04 2.61777672437246982e-04
  2.65292329472e-04 2.68854162407748014e-04 2.72463804468478022e-04 2.76121897377887976e-04
  2.79829091473e-04 2.83586045821026015e-04 2.87393428334136976e-04 2.91251915890601012e-04
  2.95162194454e-04 2.99124959195043005e-04 3.03140914615898996e-04 3.07210774674700996e-04
  3.11335262913e-04 3.15515112583547998e-04 3.19751066782204016e-04 3.24043878578494991e-04
  3.28394311150e-04 3.32803137919213978e-04 3.37271142688374019e-04 3.41799119781472011e-04
  3.46387874184e-04 3.51038221687022982e-04 3.55750989030816013e-04 3.60527014053235978e-04
  3.65367145838e-04 3.70272244865658018e-04 3.75243183166803975e-04 3.80280844476871987e-04
  3.85386124393e-04 3.90559930535043021e-04 3.95803182703295003e-04 4.01116813045647002e-04
  4.06501766221e-04 4.11958999570012998e-04 4.17489483280409019e-04 4.23094200564348006e-04
  4.28774147831e-04 4.34530334863048994e-04 4.40363784998473978e-04 4.46275535310214008e-04
  4.52266636792e-04 4.58338154543338008e-04 4.64491167962133007e-04 4.70726770933314995e-04
  4.77046072025e-04 4.83450194684980012e-04 4.89940277440972989e-04 4.96517474102509994e-04
  5.03182953966e-04 5.09937902024157970e-04 5.16783519173468040e-04 5.23721022430885053e-04
  5.30751645149e-04 5.37876637233589963e-04 5.45097265369902948e-04 5.52414813243775043e-04
  5.59830581772e-04 5.67345889332589040e-04 5.74962072000383996e-04 5.82680483783349018e-04
  5.90502496864e-04 5.98429501842763999e-04 6.06462907986128012e-04 6.14604143476246982e-04
  6.22854655665e-04 6.31215911332795002e-04 6.39689396946147969e-04 6.48276618925139043e-04
  6.56979103910e-04 6.65798399030968963e-04 6.74736072187084976e-04 6.83793712321185032e-04
  6.92972929704e-04 7.02275356221356050e-04 7.11702645661684962e-04 7.21256474012644980e-04
  7.30938539758e-04 7.40750564178696037e-04 7.50694291661158975e-04 7.60771490005124947e-04
  7.70983950739e-04 7.81333489438442949e-04 7.91821946048517039e-04 8.02451185211415030e-04
  8.13223096598e-04 8.24139595242066023e-04 8.35202621884279049e-04 8.46414143313720026e-04
  8.57776152719e-04 8.69290670043673967e-04 8.80959742342524968e-04 8.92785444148310034e-04
  9.04769877839e-04 9.16915174012637008e-04 9.29223491864484001e-04 9.41697019572517021e-04
  9.54337974686e-04 9.67148604518013044e-04 9.80131186548721970e-04 9.93288028826528994e-04
  1.00662147038e-03 1.02013388163465992e-03 1.03382766483175992e-03 1.04770525445795006e-03
  1.06176911768e-03 1.07602175476783995e-03 1.09046569957059990e-03 1.10510351993559010e-03
  1.11993781818e-03 1.13497123155311005e-03 1.15020643269969007e-03 1.16564613014062007e-03
  1.18129306875e-03 1.19715003025201001e-03 1.21321983369880007e-03 1.22950533598830997e-03
  1.24600943236e-03 1.26273505693039992e-03 1.27968518317644994e-03 1.29686282450238994e-03
  1.31427103476e-03 1.33191290877718999e-03 1.34979158294445001e-03 1.36791023573621003e-03
  1.38627208829e-03 1.40488040499556991e-03 1.42373849403507990e-03 1.44284970801136997e-03
  1.46221744452e-03 1.48184514677694007e-03 1.50173630419136008e-03 1.52189445302536005e-03
  1.54232317700e-03 1.56302610795102000e-03 1.58400692644522002e-03 1.60526936246405995e-03
  1.62681719605e-03 1.64865425799233002e-03 1.67078443048632999e-03 1.69321164784537004e-03
  1.71593989719e-03 1.73897321915584993e-03 1.76231570861829011e-03 1.78597151541406009e-03
  1.80994484508e-03 1.83423995961120006e-03 1.85886117819644009e-03 1.88381287800833000e-03
  1.90909949497e-03 1.93472552454760000e-03 1.96069552254622996e-03 1.98701410592315008e-03
  2.01368595361e-03 2.04071580732967991e-03 2.06810847246986004e-03 2.09586881890676995e-03
  2.12400178189e-03 2.15251236289797998e-03 2.18140563056482993e-03 2.21068672154379987e-03
  2.24036084144e-03 2.27043326572859980e-03 2.30090934069962982e-03 2.33179448440155000e-03
  2.36309418761e-03 2.39481401479285996e-03 2.42695960512030002e-03 2.45953667344651992e-03
  2.49255101134e-03 2.52600848809170003e-03 2.55991505179722998e-03 2.59427673037555991e-03
  2.62909963266e-03 2.66438994948061010e-03 2.70015395476427009e-03 2.73639800665061985e-03
  2.77312854862e-03 2.81035211064962001e-03 2.84807531035332013e-03 2.88630485417918020e-03
  2.92504753859e-03 2.96431025127986015e-03 3.00409997238627012e-03 3.04442377574346999e-03
  3.08528883013e-03 3.12670240056346985e-03 3.16867184955405999e-03 3.21120463845148011e-03
  3.25430832875e-03 3.29799058344876998e-03 3.34225916838966006e-03 3.38712195366235990e-03
  3.43258691499e-03 3.47866213515603002e-03 3.52535580542813996e-03 3.57267622702754986e-03
  3.62063181260e-03 3.66923108770407990e-03 3.71848269234407005e-03 3.76839538248879011e-03
  3.81897803164e-03 3.87023963239240985e-03 3.92218929806396974e-03 3.97483626428445959e-03
  4.02818989065e-03 4.08225966239984025e-03 4.13705519207066986e-03 4.19258622123749002e-03
  4.24886262223e-03 4.30589439988850013e-03 4.36369169334733034e-03 4.42226477783259995e-03
  4.48162406649e-03 4.54178011224249962e-03 4.60274360965247029e-03 4.66452539683694968e-03
  4.72713645739e-03 4.79058792232422981e-03 4.85489107207469957e-03 4.92005733847932988e-03
  4.98609830682e-03 5.05302571789858004e-03 5.12085147008640041e-03 5.18958762147739977e-03
  5.25924639201e-03 5.32984016565764013e-03 5.40138149260191002e-03 5.47388309149221021e-03
  5.54735785169e-03 5.62181883557621997e-03 5.69727928084740997e-03 5.77375260289519042e-03
  5.85125239718e-03 5.92979244164182958e-03 6.00938669916744033e-03 6.09004932005492022e-03
  6.17179464454e-03 6.25463720533468975e-03 6.33859173022897990e-03 6.42367314469101999e-03
  6.50989657453e-03 6.59727734858187032e-03 6.68583100143750001e-03 6.77557327620142025e-03
  6.86652012729e-03 6.95868772327841011e-03 7.05209244975324012e-03 7.14675091224738039e-03
  7.24267993918e-03 7.33989658485675964e-03 7.43841813248915032e-03 7.53826209727970990e-03
  7.63944622953e-03 7.74198851779550959e-03 7.84590719208761930e-03 7.95122072711063055e-03
  8.05794784555e-03 8.16610752139112009e-03 8.27571898331135036e-03 8.38680171807960027e-03
  8.49937547403e-03 8.61346026457173071e-03 8.72907637174527920e-03 8.84624434982991988e-03
  8.96498502900e-03 9.08531951901346037e-03 9.20726921299431025e-03 9.33085579120638935e-03
  9.45610122492e-03 9.58302778032713021e-03 9.71165802247581957e-03 9.84201481930586063e-03
  9.97412134570e-03 1.01080010876176008e-02 1.02436778462475005e-02 1.03811757422619007e-02
  1.05205192201e-02 1.06617330522830005e-02 1.08048423438836996e-02 1.09498725369242007e-02
  1.10968494149e-02 1.12457991075171002e-02 1.13967480950169005e-02 1.15497232132045994e-02
  1.17047516581e-02 1.18618609906029002e-02 1.20210791417960008e-02 1.21824344175074997e-02
  1.23459555035e-02 1.25116714707535007e-02 1.26796117801867992e-02 1.28498062883419008e-02
  1.30222852525e-02 1.31970793359479002e-02 1.33742196137441993e-02 1.35537375779286994e-02
  1.37356651433e-02 1.39200346529528996e-02 1.41068788842372006e-02 1.42962310543764994e-02
  1.44881248265e-02 1.46825943154939992e-02 1.48796740942917002e-02 1.50793991997948008e-02
  1.52818051392e-02 1.54869278963628999e-02 1.56948039380472998e-02 1.59054702205561997e-02
  1.61189641962e-02 1.63353238201095000e-02 1.65545875567039008e-02 1.67767943868082012e-02
  1.70019838144e-02 1.72301958738814015e-02 1.74614711367531983e-02 1.76958507192711001e-02
  1.79333762895e-02 1.81740900749348989e-02 1.84180348696703008e-02 1.86652540423459003e-02
  1.89157915437e-02 1.91696919143567006e-02 1.94270002928643992e-02 1.96877624236004994e-02
  1.99520246650e-02 2.02198339976046998e-02 2.04912380327762003e-02 2.07662850207994999e-02
  2.10450238596e-02 2.13275041036070992e-02 2.16137759721508997e-02 2.19038903588033990e-02
  2.21978988402e-02 2.24958536853480003e-02 2.27978078647241011e-02 2.31038150598859016e-02
  2.34139296729e-02 2.37282068361256010e-02 2.40467024218304001e-02 2.43694730523092984e-02
  2.46965761099e-02 2.50280697469921001e-02 2.53640128967873996e-02 2.57044652833550991e-02
  2.60494874325e-02 2.63991406822838004e-02 2.67534871943230015e-02 2.71125899644471015e-02
  2.74765128341e-02 2.78453205016222990e-02 2.82190785338096994e-02 2.85978533775135997e-02
  2.89817123715e-02 2.93707237583231001e-02 2.97649566966430995e-02 3.01644812733353994e-02
  3.05693685160e-02 3.09796904057887991e-02 3.13955198897648974e-02 3.18169308943088008e-02
  3.22439983380e-02 3.26767981451914005e-02 3.31154072590839968e-02 3.35599036558286989e-02
  3.40103663582e-02 3.44668754495763008e-02 3.49295120883979029e-02 3.53983585223746969e-02
  3.58734981032e-02 3.63550153014405020e-02 3.68429957213652973e-02 3.73375261163532007e-02
  3.78386944042e-02 3.83465896828737995e-02 3.88613022461428009e-02 3.93829235998394006e-02
  3.99115464780e-02 4.04472648594850978e-02 4.09901739844613019e-02 4.15403703715589018e-02
  4.20979518349e-02 4.26630175016007029e-02 4.32356678292135990e-02 4.38160046237678000e-02
  4.44041310578e-02 4.50001516886014974e-02 4.56041724770337026e-02 4.62163008061381997e-02
  4.68366455003e-02 4.74653168447774984e-02 4.81024266048976981e-02 4.87480880463371999e-02
  4.94024159551e-02 5.00655266577290023e-02 5.07375380424597011e-02 5.14185695797056003e-02
  5.21087423435e-02 5.28081790331410006e-02 5.35170039946712972e-02 5.42353432433173993e-02
  5.49633244857e-02 5.57010771427038018e-02 5.64487323722197981e-02 5.72064230927293027e-02
  5.79742840068e-02 5.87524516250619022e-02 5.95410642904736984e-02 6.03402622029197977e-02
  6.11501874441e-02 6.19709840029594033e-02 6.28027978009454979e-02 6.36457767182918022e-02
  6.45000706201e-02 6.53658313832028992e-02 6.62432129227939065e-02 6.71323712201613992e-02
  6.80334643502e-02 6.89466525097171962e-02 6.98720980455797974e-02 7.08099654839093040e-02
  7.17604215592e-02 7.27236352438190986e-02 7.36997777783967994e-02 7.46890227019195996e-02
  7.56915458828e-02 7.67075255498928937e-02 7.77371423246105003e-02 7.87805792526038023e-02
  7.98380218365e-02 8.09096580689346034e-02 8.19956784657801946e-02 8.30962761002091016e-02
  8.42116466369e-02 8.53419883669516016e-02 8.64875022429160006e-02 8.76483919147433982e-02
  8.88248637659e-02 9.00171269499679960e-02 9.12253934280547046e-02 9.24498780062490977e-02
  9.36907983739e-02 9.49483751424116951e-02 9.62228318842286989e-02 9.75143951728189989e-02
  9.88232946228e-02 1.00149762930961006e-01 1.01494035917277001e-01 1.02856352567189002e-01
  1.04236955074e-01 1.05636088881523996e-01 1.07054002728613998e-01 1.08490948692487002e-01
  1.09947182234e-01 1.11422962242914994e-01 1.12918551084045998e-01 1.14434214643780993e-01
  1.15970222377e-01 1.17526847357021999e-01 1.19104366320044994e-01 1.20703059718448996e-01
  1.22323211769e-01 1.23965110501811998e-01 1.25629047815501993e-01 1.27315319525135001e-01
  1.29024225417e-01 1.30756069300457994e-01 1.32511159064058998e-01 1.34289806728174005e-01
  1.36092328502e-01 1.37919044837147009e-01 1.39770280489450005e-01 1.41646364571860001e-01
  1.43547630615e-01 1.45474416627864006e-01 1.47427065154128012e-01 1.49405923336828006e-01
  1.51411342978e-01 1.53443680602531995e-01 1.55503297519685002e-01 1.57590559889187992e-01
  1.59705838785e-01 1.61849510263486013e-01 1.64021955426230992e-01 1.66223560491834010e-01
  1.68454716863e-01 1.70715821194277001e-01 1.73007275467074007e-01 1.75329487056622990e-01
  1.77682868807e-01 1.80067839102352995e-01 1.82484821944710995e-01 1.84934247025935000e-01
  1.87416549806e-01 1.89932171589187987e-01 1.92481559604301994e-01 1.95065167082418001e-01
  1.97683453338e-01 2.00336883852064995e-01 2.03025930351571987e-01 2.05751070896652011e-01
  2.08512789964e-01 2.11311578532902000e-01 2.14147934173409993e-01 2.17022361133905994e-01
  2.19935370431e-01 2.22887479941279998e-01 2.25879214491393004e-01 2.28911105953337995e-01
  2.31983693338e-01 2.35097522891309002e-01 2.38253148191083008e-01 2.41451130245713991e-01
  2.44692037594e-01 2.47976446405087009e-01 2.51304940583222003e-01 2.54678111869236001e-01
  2.58096559947e-01 2.61560892549348001e-01 2.65071725567028016e-01 2.68629683157287025e-01
  2.72235397855e-01 2.75889510686482986e-01 2.79592671280544991e-01 2.83345537986890994e-01
  2.87148777992e-01 2.91003067436575003e-01 2.94909091538648027e-01 2.98867544712502986e-01
  3.02879130694e-01 3.06944562663266973e-01 3.11064563375751002e-01 3.15239865286448984e-01
  3.19471210682e-01 3.23759351813485974e-01 3.28105051027645978e-01 3.32509080904926979e-01
  3.36972224396e-01 3.41495274959070005e-01 3.46079036705209009e-01 3.50724324537040000e-01
  3.55431964296e-01 3.60202792907456992e-01 3.65037658532052001e-01 3.69937420713927989e-01
  3.74902950535e-01 3.79935130768675022e-01 3.85034856038551976e-01 3.90203032975714015e-01
  3.95440580381e-01 4.00748429387092986e-01 4.06127523626224007e-01 4.11578819395763018e-01
  4.17103285829e-01 4.22701905068800010e-01 4.28375672439046007e-01 4.34125596624752974e-01
  4.39952699850e-01 4.45858018059020977e-01 4.51842601102294017e-01 4.57907512921262028e-01
  4.64053831738e-01 4.70282650248934009e-01 4.76595075814642999e-01 4.82992230661190014e-01
  4.89475252077e-01 4.96045292617470990e-01 5.02703520305934015e-01 5.09451118845238971e-01
  5.16289287826e-01 5.23219242941409979e-01 5.30242216201043948e-01 5.37359456152211035e-01
  5.44572228101e-01 5.51881814336250054e-01 5.59289514359937012e-01 5.66796645115775988e-01
  5.74404541225e-01 5.82114555221203034e-01 5.89928057795152005e-01 5.97846438034115968e-01
  6.05871103671e-01 6.14003481334137957e-01 6.22245016801001971e-01 6.30597175255154019e-01
  6.39061441547e-01 6.47639320456559031e-01 6.56332336963402985e-01 6.65142036515336987e-01
  6.74069985304e-01 6.83117770544930947e-01 6.92287000755982040e-01 7.01579306047052986e-01
  7.10996338408e-01 7.20539772002714018e-01 7.30211303466744011e-01 7.40012652208935973e-01
  7.49945560717e-01 7.60011794867807011e-01 7.70213144240299963e-01 7.80551422434666020e-01
  7.91028467394e-01 8.01646141732451967e-01 8.12406333063746988e-01 8.23310954339394052e-01
  8.34361944187e-01 8.45561267257432969e-01 8.56910914569610993e-01 8.68412903868953978e-01
  8.80069279984e-01 8.91882115189655988e-01 9.03853509577062009e-01 9.15985591425487966e-01
  9.28280517581e-01 9.40740473841961022e-01 9.53367675343187004e-01 9.66164366954208043e-01
  9.79132823676e-01 9.92275351046495002e-01 1.00559428554925989e+00 1.01909199503007009e+00
  1.03277087912e+00 1.04663336964851994e+00 1.06068193110306996e+00 1.07491906103995993e+00
  1.08934729054e+00 1.10396918466580995e+00 1.11878734289770998e+00 1.13380439961596990e+00
  1.14902302456e+00 1.16444592330055996e+00 1.18007583772958990e+00 1.19591554653881005e+00
  1.21196786572e+00 1.22823564905560989e+00 1.24472178864432004e+00 1.26142921539698993e+00
  1.27836089957e+00 1.29551985127559011e+00 1.31290912104878998e+00 1.33053180035797003e+00
  1.34839102217e+00 1.36648996150559010e+00 1.38483183600071991e+00 1.40341990648168990e+00
  1.42225747754e+00 1.44134789813673003e+00 1.46069456216477001e+00 1.48030090908532008e+00